LAMMPS data: 1200-bead sine arch (ds~0.96) + cohesin type2/3

1202 atoms
1200 bonds
1198 angles

3 atom types
2 bond types
1 angle types

-150 150 xlo xhi
-100 100 ylo yhi
-50 574.1127230464124 zlo zhi

Masses

1 1.0   # DNA bead
2 10.0  # cohesin type2
3 10.0  # cohesin type3


Atoms # angle

1 1 1 -100 0 0 0 0 0
1199 1 1 100.33392920846941 0.509764793089263 0.7039414208003155 0 0 0
1200 1 1 100 0 0 0 0 0
2 1 1 -99.5337503805157 -0.4668188993680464 0.6640934634996962 0 0 0
3 1 1 -99.17200606990866 -0.5964697984725453 1.539401843383321 0 0 0
1198 1 1 100.80944217257543 0.18824939255722037 1.621260209439389 0 0 0
4 1 1 -98.33244141860283 -1.051935416430991 2.017393322776734 0 0 0
1197 1 1 101.1478033672785 0.3043973437867923 2.5073613893601507 0 0 0
5 1 1 -97.7631058393936 -1.4631044385861458 2.7062884251302415 0 0 0
1196 1 1 100.99577711987568 0.6447548636164214 3.392781961416375 0 0 0
6 1 1 -97.38122148772213 -1.841749915033435 3.482017680123548 0 0 0
1195 1 1 101.14774037723524 0.7822518427600388 4.319077437489858 0 0 0
7 1 1 -97.22345940170526 -1.9593823249981759 4.428848282861441 0 0 0
1194 1 1 101.4875509661656 0.5168341915140447 5.172491112052792 0 0 0
1193 1 1 101.91176231060753 0.19616847311707253 6.03072038265245 0 0 0
9 1 1 -97.67970359228767 -1.585692755467993 6.26310291679632 0 0 0
8 1 1 -97.33447101941519 -1.7914563668883947 5.368247809313317 0 0 0
1192 1 1 102.1907184566173 0.3321562934983584 6.930109826602088 0 0 0
10 1 1 -98.02753300988653 -2.0236440023001205 7.082462611735006 0 0 0
1191 1 1 102.29571965966758 0.4590475948682226 7.921206041641532 0 0 0
11 1 1 -98.2843857662728 -2.0646254632753296 8.0220419662085 0 0 0
1190 1 1 102.32180858486328 0.7485160149596286 8.856587622114002 0 0 0
12 1 1 -98.51599934511574 -2.189678171207375 8.933566801360815 0 0 0
1189 1 1 102.75680850315585 0.7877346400298777 9.708251551177302 0 0 0
13 1 1 -98.75781194734724 -2.2260935696384005 9.837549226425645 0 0 0
14 1 1 -99.15450247299347 -2.1680535848508153 10.722300147382944 0 0 0
1188 1 1 102.65609126982562 1.4439557226491757 10.373346909576236 0 0 0
1187 1 1 102.28530071255537 1.8936299777520726 11.183026527373272 0 0 0
15 1 1 -98.96353913857506 -1.7622793850557747 11.534711934866305 0 0 0
1186 1 1 102.07669186905483 2.368292554564773 12.002059383049748 0 0 0
16 1 1 -99.03244243800367 -1.795333919444795 12.493830961781645 0 0 0
1185 1 1 102.14211689571452 2.798665460647351 12.891614795289792 0 0 0
17 1 1 -98.86643163593618 -1.9459184021614717 13.432888114162438 0 0 0
1184 1 1 101.63962399172067 3.1734566032789515 13.63311350860115 0 0 0
18 1 1 -98.93011059675105 -2.158950041726991 14.487996698672385 0 0 0
1183 1 1 101.29044416647986 3.330212940223937 14.486875854922516 0 0 0
19 1 1 -98.95116284908076 -2.1633870176447525 15.400365514449788 0 0 0
20 1 1 -99.35177807462637 -2.4055236008259993 16.294678836125897 0 0 0
1182 1 1 101.44924181863942 4.140967079376701 15.102515639294216 0 0 0
21 1 1 -99.42702809543077 -2.8739581892308435 17.141675016997887 0 0 0
1181 1 1 101.27523728622411 5.043849239750212 15.472978445778082 0 0 0
1180 1 1 101.39815595617614 5.437973259001449 16.33732692122455 0 0 0
22 1 1 -99.31598333389138 -2.5408027744601935 18.014601058101753 0 0 0
1179 1 1 101.30140126681684 5.978066702022441 17.1553504211954 0 0 0
23 1 1 -99.34698690293719 -2.3719139096785975 18.973600501859636 0 0 0
1178 1 1 101.52885535746957 6.487116378108695 17.88438733226464 0 0 0
1177 1 1 101.71927843682208 6.632734018391371 18.833204530123883 0 0 0
24 1 1 -99.41502202930673 -2.222510727032685 20.003627556822256 0 0 0
25 1 1 -99.19223985276439 -1.9407463601397839 20.933142308842825 0 0 0
1176 1 1 101.58866375649744 6.630041627667161 19.806824113505375 0 0 0
1175 1 1 101.5671454068087 6.2928725929882425 20.698446372486092 0 0 0
26 1 1 -98.99393525119588 -1.8278315686537145 21.88830763927228 0 0 0
1174 1 1 101.77643330773708 5.84327369421719 21.518016630277263 0 0 0
27 1 1 -98.79268440730942 -1.4918976580257195 22.708314023026684 0 0 0
1173 1 1 101.77649309657441 5.761341796241097 22.483194790548016 0 0 0
28 1 1 -98.33490333072656 -1.3964904412766141 23.601786594305842 0 0 0
1172 1 1 101.69990791251114 5.796188304265552 23.384315800610928 0 0 0
29 1 1 -98.33929903661911 -1.4438211980738158 24.595925703928643 0 0 0
1171 1 1 101.69569227158503 5.630396786417207 24.336197560125 0 0 0
30 1 1 -98.79213823222565 -1.4793217549831623 25.406860125831354 0 0 0
1170 1 1 102.02177069215634 5.505402918926442 25.2499294552951 0 0 0
1169 1 1 102.36862403449373 5.362709316723371 26.150156817575763 0 0 0
31 1 1 -98.80421116338069 -1.4751143380557628 26.398905400779018 0 0 0
1168 1 1 102.54053613405722 5.0728653660022935 27.01854234920901 0 0 0
32 1 1 -98.53743556593896 -1.7879937533348058 27.2922426601728 0 0 0
1167 1 1 102.44323127239713 5.399366464656659 27.994312683613554 0 0 0
33 1 1 -99.05598761099512 -2.080699553536959 28.13550186606723 0 0 0
34 1 1 -99.14484229527865 -1.8373397130283302 29.10208662338524 0 0 0
1166 1 1 102.55684298413031 5.433821983777179 28.968369471769815 0 0 0
35 1 1 -98.94007284615081 -1.865462466920566 30.064021613415623 0 0 0
1165 1 1 102.19099615361115 5.851242454254013 29.813464570743154 0 0 0
36 1 1 -98.22839857812832 -1.9777543862579179 30.71003595508713 0 0 0
1164 1 1 101.63566702000053 6.058110649539269 30.510210050708217 0 0 0
37 1 1 -97.72850329050237 -2.250487564250734 31.514971655595556 0 0 0
1163 1 1 101.60022458083382 6.293192788556074 31.463278183068837 0 0 0
1162 1 1 101.74790461291599 6.798122218272203 32.294838138741426 0 0 0
38 1 1 -97.34582239239028 -2.3589112539522543 32.394371597191615 0 0 0
39 1 1 -97.20003832396725 -2.658812627121475 33.31426061172487 0 0 0
1161 1 1 101.87946469784416 6.651958172665977 33.27987556437011 0 0 0
40 1 1 -96.80149966623183 -2.9557133020496926 34.1278110753273 0 0 0
1160 1 1 101.64119396938105 6.384936546560731 34.15929664999635 0 0 0
41 1 1 -96.40164998271176 -3.0887506448176554 35.02960991037061 0 0 0
1159 1 1 101.55118759244274 6.074384104987933 35.07786209173581 0 0 0
1158 1 1 101.57968205354008 6.041624087859167 36.09083609682252 0 0 0
42 1 1 -96.10860957601209 -2.9233258814325933 35.902260709051845 0 0 0
1157 1 1 101.2196069785448 5.966192336289068 36.981681893056404 0 0 0
43 1 1 -96.34463789047432 -2.8317468241098385 36.97041803123213 0 0 0
1156 1 1 100.80486200483415 5.770674563309765 37.81105104065917 0 0 0
44 1 1 -96.39009736449755 -2.4452999790969208 37.94578360445192 0 0 0
1154 1 1 100.52648283582177 5.446770937010547 39.64352898230872 0 0 0
1155 1 1 100.68977625202945 5.428689633448789 38.68899964680788 0 0 0
45 1 1 -96.54212901137392 -2.304080350536513 38.842014010139856 0 0 0
1152 1 1 99.5567332403176 4.733387158987626 41.078026109065476 0 0 0
1153 1 1 99.93263373629263 5.088957244602016 40.270951395558804 0 0 0
46 1 1 -96.5973384061644 -2.1495973693012322 39.85557756007639 0 0 0
1151 1 1 99.59515101185197 4.27288031879009 41.95945485309676 0 0 0
47 1 1 -96.26205918718414 -1.6303023150906302 40.641278620321614 0 0 0
1150 1 1 99.14663879617315 3.8071045634151726 42.73717304591656 0 0 0
48 1 1 -96.14487505949715 -1.4865433917084954 41.61834599473587 0 0 0
49 1 1 -96.65474778053633 -1.4292268527805618 42.40305752328928 0 0 0
1149 1 1 98.79348478733631 3.503743957240298 43.633305500171105 0 0 0
50 1 1 -96.96546135348306 -1.3955066071109026 43.25853545199911 0 0 0
1148 1 1 98.07475940781448 3.9238489639727145 44.19155237458258 0 0 0
51 1 1 -96.96104584455347 -1.2832796412773795 44.26062755312565 0 0 0
1147 1 1 97.43651098984456 3.7031220042891824 44.8711475874264 0 0 0
52 1 1 -96.87753617776357 -1.2768619569442734 45.20107120450849 0 0 0
53 1 1 -96.47122505675708 -1.2554255242295316 46.12928879473178 0 0 0
1146 1 1 97.27561798422042 3.511076001640144 45.78529966066995 0 0 0
54 1 1 -96.68171263841325 -1.339141808456627 47.13328174114005 0 0 0
55 1 1 -96.93706629644048 -1.8023328897708824 47.90713145970753 0 0 0
1145 1 1 97.49318188078796 3.5111880376094344 46.7622523963089 0 0 0
56 1 1 -96.98935134614277 -1.992035780597863 48.84039502281959 0 0 0
1144 1 1 96.79916120535938 3.2166509301167907 47.42731213300406 0 0 0
1143 1 1 96.340379562422 3.5490730145994487 48.19019797634441 0 0 0
57 1 1 -96.50048282855715 -2.1696528819243373 49.61143503145777 0 0 0
58 1 1 -96.07581248358872 -2.378377969027268 50.50374774344914 0 0 0
1142 1 1 96.07702282152702 3.8994153418337083 49.05000869184003 0 0 0
59 1 1 -95.72443490433564 -2.288121006295756 51.3618357829583 0 0 0
1141 1 1 95.86544900240673 4.436343066887355 49.859933174990864 0 0 0
60 1 1 -95.21768459907 -2.386558182904055 52.20066190069852 0 0 0
1140 1 1 95.80218148059451 4.644838875339754 50.80283402777491 0 0 0
61 1 1 -94.59397084878756 -2.321196203070629 53.011013852237774 0 0 0
62 1 1 -93.87974576825813 -2.425237948526328 53.636772387269026 0 0 0
1138 1 1 95.22859966463712 4.964382262981577 52.57018242626524 0 0 0
1139 1 1 95.60914807908108 4.879155973220721 51.65670172360555 0 0 0
63 1 1 -93.1629332296866 -2.9008316948070147 54.091307744439305 0 0 0
1137 1 1 95.3464484894713 4.832193205694693 53.52357417855888 0 0 0
64 1 1 -92.540855597905 -3.0547994296886087 54.785636133405795 0 0 0
1136 1 1 95.96606872199244 4.899556057360169 54.30211604984837 0 0 0
65 1 1 -92.62925422967857 -3.535032108568393 55.56274389464089 0 0 0
1135 1 1 95.88464686959351 4.370919161938099 55.168662337789954 0 0 0
66 1 1 -92.81085081885308 -3.8893845741820234 56.473226061367995 0 0 0
1134 1 1 95.87860648465264 3.878792014335527 56.036223167487336 0 0 0
67 1 1 -92.59251918629012 -4.468312778766651 57.25359382388497 0 0 0
68 1 1 -91.98181910034894 -5.119455904978883 57.719131488291 0 0 0
1133 1 1 95.98008646325985 3.3914105822789513 56.924397305339184 0 0 0
1132 1 1 96.70269285338082 3.3145783986817188 57.62276715149266 0 0 0
69 1 1 -91.6453497497123 -5.423095660572793 58.6597046275608 0 0 0
1131 1 1 97.3499320087721 3.2608215311162176 58.420940565049854 0 0 0
70 1 1 -91.55036658031061 -5.463465214043074 59.595816090159914 0 0 0
1130 1 1 97.49131372928028 3.2769601423976358 59.43598241677248 0 0 0
71 1 1 -91.51832134884322 -5.231561062709955 60.59547979815357 0 0 0
1129 1 1 97.42942927443508 2.5965453192522028 60.083396335539355 0 0 0
1128 1 1 97.52678805429865 2.4431724659779532 61.00873094508489 0 0 0
72 1 1 -91.50817177107191 -4.840731478191684 61.49740162787659 0 0 0
1127 1 1 97.00011138942507 2.4487402682380432 61.80754234123711 0 0 0
73 1 1 -91.15574738242339 -4.965570251714248 62.366168295850215 0 0 0
74 1 1 -91.0711949401326 -5.064639926403667 63.38016488129675 0 0 0
1126 1 1 96.7266461333857 2.766425674465627 62.68844767699443 0 0 0
75 1 1 -91.34583775031288 -5.023809259424921 64.29857554210008 0 0 0
1125 1 1 96.61990188001532 3.0054955863669366 63.67961342670419 0 0 0
76 1 1 -91.71874201546281 -4.608380080424985 65.11982033342913 0 0 0
1124 1 1 96.41397442529241 2.679918871612804 64.61387709568399 0 0 0
77 1 1 -91.61276513408656 -4.208125541785071 66.00678684036788 0 0 0
1123 1 1 96.307496618757 2.1901363975526853 65.44608909629008 0 0 0
78 1 1 -91.46347155846406 -4.0296760037706045 66.9842593747414 0 0 0
79 1 1 -91.55724016970414 -4.407416146409767 67.81657789740669 0 0 0
1122 1 1 96.33289437406123 1.8178868443931413 66.31337932269699 0 0 0
1121 1 1 95.83734697202135 1.778461508208017 67.1923430905845 0 0 0
80 1 1 -91.36419532634835 -4.403116016373133 68.8394572826109 0 0 0
1120 1 1 95.21265054787135 1.4938687297689672 67.94002404930775 0 0 0
81 1 1 -91.1961622532694 -4.151171330322847 69.74452511586627 0 0 0
1119 1 1 94.74753384129352 1.3880287719851248 68.78852229409621 0 0 0
82 1 1 -91.64037915387128 -3.7991071191844923 70.5062742983709 0 0 0
1118 1 1 94.51204767590274 1.4833406548363826 69.70234386687613 0 0 0
83 1 1 -91.91193057612736 -3.5855735123159205 71.42556059434969 0 0 0
1117 1 1 94.40827528725534 1.1589848434670171 70.57875400164998 0 0 0
84 1 1 -92.3556288847984 -3.6649006491191605 72.27174570147898 0 0 0
85 1 1 -92.56666673239127 -3.8149663464690686 73.22297341626908 0 0 0
1116 1 1 94.54614803325939 0.8295091487303835 71.56615200194629 0 0 0
86 1 1 -92.66869392227822 -3.786491624529658 74.22768231782207 0 0 0
1114 1 1 94.49770191498008 0.4510433834033786 73.40798660912758 0 0 0
1115 1 1 94.48146067208853 0.7695498086601524 72.5044076931807 0 0 0
87 1 1 -92.71401721847585 -3.6716467869061407 75.15448893876533 0 0 0
1112 1 1 93.74525423855707 0.8957867746978166 75.0839002667579 0 0 0
1113 1 1 94.33415920279857 0.7384686638087469 74.29771869734535 0 0 0
88 1 1 -92.37796601045365 -4.169199222063073 75.9714789081658 0 0 0
1111 1 1 93.31819105395073 0.8734266404632929 75.98273590172957 0 0 0
89 1 1 -92.54063031807502 -4.164043197153067 76.94291511785039 0 0 0
1110 1 1 92.99801911459112 0.6240056173683401 76.838371348763 0 0 0
90 1 1 -92.12932742507782 -3.60222041635301 77.59790630283543 0 0 0
91 1 1 -91.5924689848809 -3.712596878077701 78.41419925257402 0 0 0
1109 1 1 92.85225200989608 0.5208098455264003 77.79207455781432 0 0 0
92 1 1 -91.16513439874265 -3.9384063913226908 79.3003069785587 0 0 0
1108 1 1 92.76021826940405 0.7472601111634299 78.75735811286104 0 0 0
1107 1 1 92.87840617041874 0.9888954663878888 79.66219124281287 0 0 0
93 1 1 -90.64190044490505 -3.9706888108195546 80.18574123604363 0 0 0
1106 1 1 92.50508605586113 1.2591306454811384 80.53229210508356 0 0 0
94 1 1 -90.83224166249589 -3.5658656515828664 81.07029641913277 0 0 0
1105 1 1 92.28192090709743 1.2790881979675943 81.45495487026348 0 0 0
95 1 1 -90.52774720291492 -3.323212591148349 81.92122360577787 0 0 0
1104 1 1 91.75839157878384 1.2006068324265113 82.28789486565357 0 0 0
96 1 1 -90.46074757797078 -3.177759004240789 82.90812567509346 0 0 0
1102 1 1 90.84201522513595 2.0614577082800327 83.80078092301105 0 0 0
1103 1 1 91.11630630245564 1.6513390928475564 82.91906202563443 0 0 0
97 1 1 -90.37577419390843 -3.218931293867861 83.91666119905392 0 0 0
98 1 1 -90.2942046092084 -3.689534987314971 84.81057380094991 0 0 0
1101 1 1 91.46759269355601 2.2822314779886503 84.5407535737602 0 0 0
99 1 1 -90.67629419438293 -3.986915704367891 85.69163180936401 0 0 0
100 1 1 -91.0642524339167 -4.780552297154988 86.10261782411854 0 0 0
1100 1 1 91.65119047039697 2.59859405581944 85.55851548434208 0 0 0
101 1 1 -91.03243664340286 -5.380285291125316 86.85993864594035 0 0 0
1099 1 1 91.9533260449665 2.8892131233556446 86.48444365894598 0 0 0
102 1 1 -90.42123887164027 -5.758239009845205 87.53286937545337 0 0 0
1098 1 1 92.57979913493907 3.310889407373948 87.16630381898064 0 0 0
1097 1 1 93.23063757378642 3.598604772530857 87.81516819326518 0 0 0
103 1 1 -90.2720498348469 -5.696132043297571 88.47827838046888 0 0 0
1096 1 1 93.49098339531253 3.4045645022026743 88.70782739862852 0 0 0
104 1 1 -90.12291614865114 -5.589159017431612 89.4096137589593 0 0 0
105 1 1 -90.0244496130485 -5.597843519637424 90.37411061553186 0 0 0
1095 1 1 93.67155676618766 3.3315939775968677 89.65425105380893 0 0 0
106 1 1 -89.98261494802527 -4.9688791144056585 91.13918575957459 0 0 0
1094 1 1 94.09005831452761 3.445680752983802 90.57407500702472 0 0 0
1093 1 1 94.13604681843688 3.816763636432557 91.46955765677959 0 0 0
107 1 1 -90.3656589855417 -4.768742163161494 92.04517217654448 0 0 0
1092 1 1 94.36056222655942 4.22691585182108 92.29853271145102 0 0 0
108 1 1 -90.74191844655971 -4.164092722384951 92.7127292792493 0 0 0
1091 1 1 94.77537790783319 4.6788017286050945 93.0480578791846 0 0 0
109 1 1 -91.14730001227403 -3.6828627393088817 93.44601280207884 0 0 0
1090 1 1 94.78218634942144 5.208413591031412 93.89416995024433 0 0 0
110 1 1 -91.70861017291969 -3.2132813735368 94.07961346343876 0 0 0
111 1 1 -91.71302778598111 -3.072685401244663 95.1014378737824 0 0 0
1089 1 1 95.03556063397784 5.464025505128249 94.73199839062983 0 0 0
112 1 1 -91.6618942643216 -2.9275464847356027 96.11833868589108 0 0 0
1088 1 1 95.37732295787438 5.7206413277457075 95.56142538998239 0 0 0
113 1 1 -91.62329139133398 -2.8814486295328092 97.05893945940952 0 0 0
1087 1 1 95.80923644985523 5.6027256335120335 96.46665891095105 0 0 0
1086 1 1 95.83654900623418 5.291584902972802 97.39746541083699 0 0 0
114 1 1 -91.67479205970238 -2.9083483645020047 98.05892933536244 0 0 0
115 1 1 -91.63998355588635 -2.456913724539687 98.91505333156118 0 0 0
1085 1 1 95.95517095131582 5.3663933724207675 98.36531413429097 0 0 0
116 1 1 -91.42201382412198 -2.1619924054913033 99.91050815829665 0 0 0
1084 1 1 95.84260210849416 5.550405412599487 99.27205762762982 0 0 0
117 1 1 -91.79177301586547 -1.7446284141383175 100.73532698009683 0 0 0
1083 1 1 96.00000147244741 5.500857148401084 100.24704391296697 0 0 0
118 1 1 -91.61023617906251 -1.37351004457661 101.66561517336334 0 0 0
1082 1 1 95.7317599913989 5.298457976126528 101.22207104835748 0 0 0
119 1 1 -91.11858825770234 -1.2973093267757607 102.51661763876342 0 0 0
1081 1 1 95.1505715986291 5.357135522988765 102.00261515712211 0 0 0
120 1 1 -90.59425584324066 -1.3311958904075012 103.28648697988011 0 0 0
121 1 1 -89.93928534503033 -1.484534337147072 103.93956456508991 0 0 0
1080 1 1 94.55944606220261 4.979509602484948 102.6308683595661 0 0 0
1079 1 1 93.69861309120846 4.834229783739609 102.9507707052067 0 0 0
122 1 1 -89.78936214037203 -1.5009844493812539 104.91080623058352 0 0 0
1078 1 1 92.9130552902678 4.568408789367338 103.42024883736455 0 0 0
123 1 1 -89.93813227312617 -1.3488028390456466 105.83959397746183 0 0 0
1077 1 1 92.76336557456459 4.0520155854817785 104.16230153693193 0 0 0
1076 1 1 93.03634076064178 3.524334192171745 104.94735954565469 0 0 0
1075 1 1 93.15399515783493 3.155086519281465 105.82510648121817 0 0 0
125 1 1 -89.10672534868064 -0.49667992907932107 107.3370339693518 0 0 0
891 1 1 66.26670604810181 5.491759137689266 261.29815903441624 0 0 0
124 1 1 -89.3625350386645 -0.8919170854289208 106.44861501598946 0 0 0
126 1 1 -88.9717319349886 -0.9896661586008543 108.12798182830298 0 0 0
1074 1 1 93.27857255218835 2.9412056476761914 106.76034051257918 0 0 0
127 1 1 -88.48463779239421 -1.1114441032051454 108.97155379707182 0 0 0
1073 1 1 93.51823804493216 3.270244347896919 107.6719238886879 0 0 0
128 1 1 -88.04031888456674 -0.9216681011806155 109.78260687423776 0 0 0
1072 1 1 93.1038413317088 3.499782748864163 108.49958959048112 0 0 0
1071 1 1 92.96270971168293 3.883174320072254 109.40839422555341 0 0 0
129 1 1 -88.14020882732152 -0.8301766469480256 110.76770935444955 0 0 0
1070 1 1 92.88901461565841 4.249083027389874 110.24927740605295 0 0 0
130 1 1 -87.94494862890674 -0.6763229550250589 111.68547807640664 0 0 0
131 1 1 -87.88309158208656 -0.4149779665672717 112.61498412339809 0 0 0
1069 1 1 92.38464137111718 4.625756397200364 111.01123958347391 0 0 0
132 1 1 -87.67882975897187 -0.3477841521904247 113.62743943368326 0 0 0
1068 1 1 91.78787183430907 4.977313933664559 111.76504484702077 0 0 0
133 1 1 -87.605503810707 -0.3363904259285898 114.55484109736865 0 0 0
1067 1 1 91.2324843369579 5.355458972602943 112.40593909042914 0 0 0
1066 1 1 91.01227487364532 5.196020491158023 113.34112814591721 0 0 0
134 1 1 -87.54062523145885 -0.2886585138521108 115.5886490226525 0 0 0
1064 1 1 90.14881810682186 5.670973548211674 115.11397865687829 0 0 0
1065 1 1 90.69111478444404 5.446921333219194 114.24628082399545 0 0 0
135 1 1 -87.46835189074105 -0.4031833310496157 116.57570899934217 0 0 0
136 1 1 -86.94153084151297 0.07178363123790482 117.17364029446163 0 0 0
1063 1 1 89.45188437873333 5.731184476949997 115.74405194884459 0 0 0
1062 1 1 89.00838223459174 5.840927428201211 116.61858273510408 0 0 0
137 1 1 -86.63516359336988 0.8442564829457642 117.69967389380541 0 0 0
1061 1 1 88.675359435511 6.0402280500359895 117.52369452227235 0 0 0
138 1 1 -86.37247434372239 1.2598066667735037 118.571152329863 0 0 0
1060 1 1 88.14350866649755 6.674925803393349 117.88860721286176 0 0 0
139 1 1 -86.10284836505515 1.503441574769757 119.50190163074325 0 0 0
1059 1 1 87.63136898426428 7.313823051111374 118.42524717863152 0 0 0
1058 1 1 87.25053263742934 7.896184023242331 119.13809969986274 0 0 0
140 1 1 -85.7522002880859 1.8249065574692347 120.3429303304622 0 0 0
1057 1 1 86.81198128898826 8.454726630496504 119.80505094839253 0 0 0
141 1 1 -85.43640092641274 1.7521978450474975 121.3146945568868 0 0 0
142 1 1 -84.91095849197642 1.8124734422765905 122.16784424160166 0 0 0
1056 1 1 86.27365326762009 9.147380582098036 120.24411434296339 0 0 0
143 1 1 -84.87085287326568 1.6621068750903756 123.11142425235204 0 0 0
1055 1 1 85.88744544130412 9.905778868621374 120.61195930352831 0 0 0
1054 1 1 85.73882858883384 10.260594934724987 121.45536095153474 0 0 0
144 1 1 -84.94631684882029 1.1836912700331021 123.90224113314254 0 0 0
1053 1 1 85.32192523786648 10.765760983170505 122.12568453397435 0 0 0
145 1 1 -84.75982672369824 0.5829785495991489 124.6769878095792 0 0 0
1052 1 1 84.7803120504903 11.07929344503866 122.87741360835025 0 0 0
146 1 1 -84.9001365750473 0.34800026735234924 125.61671082334243 0 0 0
147 1 1 -85.36282779686512 0.1611518423824074 126.41179265324718 0 0 0
1051 1 1 84.24395418311097 11.347170822862582 123.69576045206037 0 0 0
148 1 1 -85.33689586841092 -0.10185119428809798 127.27054214692238 0 0 0
1050 1 1 84.1036557074444 11.742763070221681 124.56760405711586 0 0 0
1049 1 1 83.57856281144524 11.656088831911193 125.38998592281918 0 0 0
1048 1 1 83.55315144490841 11.24118627415608 126.26741840134879 0 0 0
149 1 1 -84.74649632201763 -0.21027123257346095 128.15479870623793 0 0 0
1047 1 1 83.85034332768686 11.1714488248253 127.20538869814986 0 0 0
150 1 1 -84.1908855331032 -0.3994493749194429 128.89475638959294 0 0 0
1046 1 1 83.9283528896034 11.073850545852368 128.17832947877332 0 0 0
151 1 1 -83.56120819158072 -0.7462672778713249 129.64949121321425 0 0 0
1045 1 1 84.03760589135833 10.498666572385337 129.010987930021 0 0 0
1044 1 1 83.94670337128737 10.040627900500857 129.85425883490848 0 0 0
152 1 1 -83.63522424938932 -0.8187576845808738 130.60680315142054 0 0 0
1043 1 1 83.71231950751984 9.948626465801327 130.78034094387675 0 0 0
153 1 1 -83.62800209409639 -0.21194401635901833 131.4000899143318 0 0 0
154 1 1 -83.34722166629854 -0.2263936749849813 132.32261201575866 0 0 0
1042 1 1 83.12916325366155 9.792289937480025 131.55189460504508 0 0 0
155 1 1 -82.744939199019 -0.32231126397979826 133.03340837622738 0 0 0
1041 1 1 82.59016668152735 10.147483951307368 132.30019865211437 0 0 0
156 1 1 -82.6908030703535 -0.08939707840027433 133.96821352500442 0 0 0
1040 1 1 82.34764818321969 10.266881135031447 133.28809265303823 0 0 0
157 1 1 -82.59882451160222 0.5084669188542383 134.7886142521973 0 0 0
1039 1 1 82.1969120176438 10.643005414272398 134.30458531760144 0 0 0
159 1 1 -82.34355792961524 -0.16566564321935204 136.70107459491427 0 0 0
158 1 1 -82.35192466781999 0.33211487366272063 135.78032550079345 0 0 0
1037 1 1 82.33207278985265 10.658759341905967 136.22978241140945 0 0 0
1038 1 1 82.52288594260108 10.656793519663815 135.27055670828665 0 0 0
160 1 1 -82.21845213977099 -0.32674695547320315 137.65020689856672 0 0 0
1036 1 1 81.77127062992658 10.358466902216776 136.96680279280906 0 0 0
161 1 1 -82.02516783504379 -0.6889646744250293 138.5291676520836 0 0 0
1035 1 1 81.26212876412815 9.909436955806079 137.66782953169516 0 0 0
162 1 1 -81.65483832998034 -0.4927942707583826 139.48659375155503 0 0 0
1034 1 1 81.44704245606152 9.852786658476024 138.67051270645212 0 0 0
163 1 1 -81.90117278940495 -0.27627222856527966 140.42927558089073 0 0 0
1033 1 1 81.17344841103242 9.771687221052352 139.59776803730594 0 0 0
164 1 1 -82.10034426545562 -0.24229881276257792 141.37235053683787 0 0 0
1032 1 1 80.96325536885193 9.671491054011028 140.54798970869567 0 0 0
1031 1 1 81.21669663596278 9.599023933092207 141.5502845944518 0 0 0
165 1 1 -82.39685118177228 0.14111046945718836 142.19799430861104 0 0 0
166 1 1 -82.76979013748308 0.39836118467589443 143.1270571943383 0 0 0
1030 1 1 81.47189065095571 9.505767764784311 142.52472598137123 0 0 0
167 1 1 -83.06950654200851 0.19408339140954778 144.03923449122607 0 0 0
1029 1 1 81.26196280152752 9.534063079168192 143.50216707263655 0 0 0
168 1 1 -82.54743426549514 0.5952834105581435 144.72693492454243 0 0 0
1028 1 1 81.48315109785025 9.617924138103179 144.4371455463148 0 0 0
169 1 1 -81.96898457528722 1.1246602726546207 145.37265207710897 0 0 0
1026 1 1 81.78862224640777 9.146898315487997 146.2795004615092 0 0 0
1027 1 1 81.5967826802229 9.359275202568913 145.3648695781394 0 0 0
170 1 1 -81.98374908233826 1.5101594340982727 146.31689242438597 0 0 0
171 1 1 -82.16667119142615 1.3427257264964894 147.24834102166585 0 0 0
1025 1 1 81.98225545841625 8.841582336551888 147.16980750775977 0 0 0
172 1 1 -81.97128319650388 1.1162765385438482 148.19958092793973 0 0 0
1024 1 1 81.87742580383794 9.522709135089556 147.87456383499088 0 0 0
1023 1 1 82.31677857370549 9.950039054843787 148.6617736968135 0 0 0
173 1 1 -81.70773595738089 0.6170917598896183 149.01578871127523 0 0 0
1022 1 1 82.6887185558992 10.098132674008678 149.51273409727847 0 0 0
174 1 1 -81.37452367057237 0.6680245252020882 149.92340874325456 0 0 0
1021 1 1 83.43876073076575 10.126352187847719 150.17194650220955 0 0 0
175 1 1 -80.68290929916506 0.6565038408353564 150.65363806146337 0 0 0
1020 1 1 83.60220319374419 9.743480136299759 151.0711508212422 0 0 0
176 1 1 -79.9407568403797 0.4969752085378285 151.3147233457705 0 0 0
177 1 1 -79.29823875880794 0.7549090092670404 151.90883620090952 0 0 0
1019 1 1 83.65377823777193 9.386386470421368 151.99957638093431 0 0 0
178 1 1 -78.92677382287673 0.3208879118775408 152.7085819558229 0 0 0
1018 1 1 83.92529776122036 9.669372234524005 152.87047869879515 0 0 0
1017 1 1 83.84369283439217 9.823344032207183 153.86533744647954 0 0 0
179 1 1 -79.04464336284497 -0.033580585691693095 153.64428969182 0 0 0
1016 1 1 83.83071459023188 9.69304437818068 154.83177825703393 0 0 0
180 1 1 -79.45136800688172 -0.13089600902315027 154.56968781007365 0 0 0
1015 1 1 83.6028279260875 9.523326344824929 155.7945891425713 0 0 0
181 1 1 -79.77519475642688 -0.45527537106088783 155.4541210635459 0 0 0
1014 1 1 83.29039976308741 9.30748912365452 156.7227471844809 0 0 0
183 1 1 -79.64281867481208 -1.504011052078443 157.10944816572234 0 0 0
182 1 1 -79.69216923711373 -0.9658536223021357 156.242934661739 0 0 0
1013 1 1 83.24222801454029 9.659289548656304 157.64497857300546 0 0 0
184 1 1 -79.84538810277608 -1.285497142599091 158.13682131078625 0 0 0
1012 1 1 82.78468369653848 9.67936973112185 158.49354791974727 0 0 0
185 1 1 -80.09396826453079 -1.1308404966742303 159.0494435335454 0 0 0
186 1 1 -79.95671046084557 -0.8719588054400792 160.0112425657185 0 0 0
1011 1 1 82.21820880238043 9.973286249512407 159.1824417170382 0 0 0
187 1 1 -79.96862453383231 -0.5252840272050364 160.90818365617292 0 0 0
1009 1 1 81.49157410249786 9.921970216668266 160.9536889628848 0 0 0
1010 1 1 81.67782764356569 10.158590642769076 160.00149977807058 0 0 0
188 1 1 -79.55640012620101 -0.4158867351807338 161.86046995753236 0 0 0
1007 1 1 81.50221963531848 9.65267257858548 162.83542292518624 0 0 0
1008 1 1 81.21303710222074 9.81536862097256 161.8927860490155 0 0 0
189 1 1 -79.50651345885059 -0.4291892241900253 162.92065339924264 0 0 0
1006 1 1 81.62311538670966 9.426816258841727 163.76964863094685 0 0 0
190 1 1 -78.99786603715935 -0.2289742257065354 163.85213793990292 0 0 0
191 1 1 -78.86214058231054 0.05834144341699764 164.80744713396098 0 0 0
1005 1 1 81.13737927713304 9.560980392937736 164.56415398520488 0 0 0
192 1 1 -78.72255055626542 -0.05620379435548374 165.7880027776115 0 0 0
1004 1 1 81.0663002067233 9.18837363236973 165.54956035164096 0 0 0
194 1 1 -78.35478209696494 -0.07321626046064825 167.66947809716285 0 0 0
193 1 1 -78.80799202669793 0.007660601043984473 166.80734423077539 0 0 0
1003 1 1 81.14951912942078 8.773386682933063 166.49030904883355 0 0 0
195 1 1 -77.88894705745925 0.22035599506071665 168.56036904576175 0 0 0
1001 1 1 81.24196652022201 8.150722943118645 168.22232907212097 0 0 0
1002 1 1 81.04102054586919 8.635363792433251 167.40700082256535 0 0 0
196 1 1 -77.3545764180557 0.5269641519578291 169.33781006335101 0 0 0
1000 1 1 81.7706673834424 8.485659663852907 169.01910310236255 0 0 0
197 1 1 -76.80188755206403 0.869277262315405 170.1147069383022 0 0 0
999 1 1 82.37336724120895 8.584505250429729 169.78632172770904 0 0 0
198 1 1 -76.73862684282716 1.397640261359409 171.02231780241144 0 0 0
998 1 1 82.85306384754588 8.756424563778772 170.64032910585973 0 0 0
199 1 1 -76.48529448265671 1.822233744080427 171.8479007099811 0 0 0
997 1 1 83.17296648549781 9.181532587475186 171.39484892582786 0 0 0
200 1 1 -77.00503265093799 2.2425352776042096 172.5383107228085 0 0 0
201 1 1 -77.52939321055322 2.631073576323139 173.18873892684326 0 0 0
996 1 1 83.48570569361458 9.460272691853444 172.26091644817205 0 0 0
202 1 1 -78.03607442653279 2.8603223006892278 174.00224554883312 0 0 0
995 1 1 83.6957305758361 9.745353782711806 173.13851826892403 0 0 0
203 1 1 -78.33350828587183 3.1663489815941417 174.8729938831654 0 0 0
994 1 1 83.64086025979323 9.904750516330179 174.1170556590193 0 0 0
204 1 1 -78.42044278139271 2.5850680454322346 175.67052830592507 0 0 0
992 1 1 83.30041114158162 9.711929787389229 175.9302124860408 0 0 0
993 1 1 83.69776996550205 9.668260397677974 175.07543685013766 0 0 0
205 1 1 -78.42545081285506 2.8736891409341156 176.66808891210633 0 0 0
991 1 1 82.82619654280388 9.846708197312847 176.78569441746689 0 0 0
206 1 1 -78.49602172259489 2.970118842599705 177.63729840871238 0 0 0
990 1 1 82.28156668046871 9.826205142690982 177.57167397111633 0 0 0
207 1 1 -79.08900930441317 2.8654682324276157 178.41999828393526 0 0 0
208 1 1 -79.48502650751287 3.1035122577652228 179.30402612865885 0 0 0
989 1 1 81.93187116513057 9.724091523317044 178.53444628313557 0 0 0
209 1 1 -80.0572907253104 3.0199267163983894 180.12006087131186 0 0 0
988 1 1 81.54776484472232 9.96298690671968 179.36304699568427 0 0 0
987 1 1 81.4265959390552 10.22128983901259 180.28983718462348 0 0 0
210 1 1 -80.44135225861034 2.839427945235076 180.99887253379669 0 0 0